
*************** JDFTx 1.7  ***************
+++++++++++++++ Linked to jdftx 1.7  +++++++++++++++

Start date and time: Wed Dec 18 22:06:47 2024
Executable /home/xujq/codes/jdftx/jdftx-202404/build-FeynWann/lindbladInit_for-DMD-4.5.6/init_for-DMD with command-line: -i lindbladInit.in
Running on hosts (process indices):  node17 (0-55)  node18 (56-111)
Divided in process groups (process indices):  0 (0)  1 (1)  2 (2)  3 (3)  4 (4)  5 (5)  6 (6)  7 (7)  8 (8)  9 (9)  10 (10)  11 (11)  12 (12)  13 (13)  14 (14)  15 (15)  16 (16)  17 (17)  18 (18)  19 (19)  20 (20)  21 (21)  22 (22)  23 (23)  24 (24)  25 (25)  26 (26)  27 (27)  28 (28)  29 (29)  30 (30)  31 (31)  32 (32)  33 (33)  34 (34)  35 (35)  36 (36)  37 (37)  38 (38)  39 (39)  40 (40)  41 (41)  42 (42)  43 (43)  44 (44)  45 (45)  46 (46)  47 (47)  48 (48)  49 (49)  50 (50)  51 (51)  52 (52)  53 (53)  54 (54)  55 (55)  56 (56)  57 (57)  58 (58)  59 (59)  60 (60)  61 (61)  62 (62)  63 (63)  64 (64)  65 (65)  66 (66)  67 (67)  68 (68)  69 (69)  70 (70)  71 (71)  72 (72)  73 (73)  74 (74)  75 (75)  76 (76)  77 (77)  78 (78)  79 (79)  80 (80)  81 (81)  82 (82)  83 (83)  84 (84)  85 (85)  86 (86)  87 (87)  88 (88)  89 (89)  90 (90)  91 (91)  92 (92)  93 (93)  94 (94)  95 (95)  96 (96)  97 (97)  98 (98)  99 (99)  100 (100)  101 (101)  102 (102)  103 (103)  104 (104)  105 (105)  106 (106)  107 (107)  108 (108)  109 (109)  110 (110)  111 (111)
Resource initialization completed at t[s]:      1.03
Run totals: 112 processes, 112 threads, 0 GPUs

Inputs after conversion to atomic units:
order_fd = 0
i_idklist_fd = 0
dkabs = 1e-08
kshift = 0 0 0
NkMult = [  20  20  20  ]
NkMult_forq = [  20  20  20  ]
dmuMin = 0.00367493
dmuMax = 0.00367493
Tmax = 0.000950043
nkBT = 10
pumpOmegaMax = 0
pumpTau = 413414
probeOmegaMax = 0
band_skipped = 0
assumeMetal = 1
assumeMetal_scatt = 1
useFinek_for_ERange = 0
select_k_use_meff = 0
meff = 1
EBot_set = 0
ETop_set = -0.0367493
kparis_eph_eimp = 0
read_kpts = 0
read_kpts_2nd = 0
read_kpairs = 0
read_erange_brange = 0
onlyKvalley = 0
ePhMode = DiagK
ePhOnlyElec = 0
ePhOnlyHole = 0
onlyInterValley = 0
onlyIntraValley = 0
modeStart = 0
modeStop = -1
modeSkipStart = 0
modeSkipStop = -1
include_deg_phonon = 1
detailBalance = 1
ePhDelta = 0.000734986
nEphDelta = 5.65685
omegabyTCut = 0.001
ePhOmegaCut = 1e-06
maxNeighbors = 0
degthr = 1e-08
defectName = 
iDefect = 1
eScattOnlyElec = 0
eScattOnlyHole = 0
scattDelta = 0.000734986
nScattDelta = 5.65685
detailBalance_defect = 1
omegaL = 9.50043e-08
DEBUG = 0
needConventional = 1
writeU = none
write_sparseP = 0
writegm = 1
keepgm = 0
mergegm = 0
layerOcc = 0
writeHEz = 0
needOmegaPhMax = 1
save_dHePhSum_disk = 1
check_T1 = 0
needL = 0
gfac_mean = 2.00232 2.00232 2.00232
gfac_sigma = 0 0 0
gfac_cap = 0 0 0
read_gfack = 0
dir_ldbd_idk_fd = ldbd_data/
idk_fd = 0 0 0
Adding spin to requirements for non-zero Bext.
Bext = [  0  0  8.50876e-08  ]
orbitalZeeman = no
EzExt = 0
scissor = 0
EshiftWeight = 0
bandSumLQ = no
enforceKramerDeg = no
degeneracyThreshold = 3.67493e-06
tdep = no
lcut_flexure = 1.88973e+10
order_flexure = 2
needR = 0
needRGD = 0
needRbar = 0
use_dtba_Rw = 0
rbar_off_fromp = 0
trunc_D_outer = 0
smear_nondeg_pert = 0
smear_rbar_off_fromp = 0
apply_asr_eph = 1
Emag_asr_eph = 0.001
velocity_with_scissor = 0
scissor_above_band = 0
band_scissor = 0
needJS = 0
js_from_sv = 0

Reading 'Wannier/totalE.out' ... done.
mu = -0.162021
nElectrons = 16
nBandsDFT = 80
nSpins = 1
nSpinor = 2
spinSuffix = ''
kfold = [  24  24  1  ]
isTruncated = [  0  0  1  ]
R:
[  4.69886  -2.34943  0  ]
[  0  4.06933  0  ]
[  0  0  25  ]
G:
[  1.33717  0.772017  -0  ]
[  0  1.54403  0  ]
[  0  -0  0.251327  ]
invGT:
[  0.747847  0  -0  ]
[  -0.373923  0.647654  0  ]
[  0  -0  3.97887  ]
Atoms with fractional coordinates:
	 C   0.666666476190476   0.333333380952381   0.124176984074378
	 C   0.333333142857143  -0.333333285714286   0.124142388661459
	 B   0.333333142857143  -0.333333285714286  -0.124076036519035
	 N  -0.000000190476190   0.000000047619048  -0.124231336216800

Reading 'Wannier/wannier.mlwfCellMap' ... done.
Reading 'Wannier/wannier.mlwfBandContrib' ... done.
nBands = 54


Reading 'Wannier/wannier.out' ... done.
EminInner = -1
EmaxInner = 0.352
Reading 'Wannier/wannier.mlwfCellWeights' ... done.

Reading 'Wannier/phonon.out' ... done.
nModes = 12
phononSup = [  6  6  1  ]

Reading 'Wannier/totalE.phononBasis' ... done.
Reading 'Wannier/totalE.phononBasis' ... done.
Reading 'Wannier/totalE.phononCellMapCorr' ... done.
Reading 'Wannier/totalE.phononOmegaSqCorr' ... done.
Reading 'Wannier/wannier.mlwfCellMapPh' ... done.
Reading 'Wannier/wannier.mlwfCellMapPhSum' ... done.
Reading 'Wannier/wannier.mlwfCellWeightsPh' ... done.
Reading 'Wannier/wannier.mlwfHePh' ... done.
Reading 'Wannier/wannier.mlwfHePhSum' ... done.
Reading 'Wannier/wannier.mlwfD' ... done.

Reading 'Wannier/wannier.out' ... done.
polar = no

Reading 'Wannier/wannier.mlwfH' ... done.
Reading 'Wannier/wannier.mlwfP' ... done.
Reading 'Wannier/wannier.mlwfS' ... done.

modeStop = 12
Setting NkMult = 1 along truncated direction 3.
Scanning q points: 2% 4% 5% 7% 9% 11% 12% 14% 16% 18% 19% 21% 23% 25% 26% 28% 30% 32% 33% 35% 37% 39% 40% 42% 44% 46% 47% 49% 51% 53% 54% 56% 58% 60% 61% 63% 65% 67% 68% 70% 72% 74% 75% 77% 79% 81% 82% 84% 86% 88% 89% 91% 93% 95% 96% 98% 100% done.
Maximum phonon energy: 212.938 meV
Minimum non-zero phonon energy: 2.44608e-06 meV (8.9892e-11 har)

carrier_density = 0 a.u.
Carrier density:  0.0000000e+00 cm^-2

Setting NkMult = 1 along truncated direction 3.
Effective interpolated k-mesh dimensions: [  480  480  1  ]
Effectively sampled nKpts: 230400

find number of DFT bands skipped in Wannier
band_skipped = 0

Determin VBM and CBM using DFT k meshes
done.
VBM: -0.030555 eV, CBM: 0.015741 eV, Middle: -0.007407 eV

The system is metalic
Emargin = 0.259 eV
Active energy range for probe: -0.159 to 0.359 eV
Active energy range for kpointSelect: -0.159 to 0.359 eV
Active energy range for density matrix: -0.159 to 0.359 eV

bBot_probe= 14 bTop_probe= 18
bBot_dm= 14 bTop_dm= 18
bBot_eph= 14 bTop_eph= 18 bCBM= 16
Scanning k-points with active states: 33% 67% 100% done.
Found 926 k-points with active states from  2.30400000000000e+05 total k-points (249x reduction)

saveR done
saveSize done
saveEk done

dmu =  3.67493237908520e-03 ( 1.00000000000000e-01 eV)

Compute StateE in parallel: done
bcastState_JX done

size of E: 4
size of U: 54 4
size of S: 4 4
size of L: 0 0
size of v: 4 4
size of rbar: 0 0


At dmuMax, majority density: Carrier density:  1.4509456e+12 cm^-2
At dmuMax, minority density: Carrier density: -1.7812547e+09 cm^-2
At dmuMin, majority density: Carrier density:  1.4509456e+12 cm^-2
At dmuMin, minority density: Carrier density: -1.7812547e+09 cm^-2
saveElec done

Spin mixing |b|^2: 0.194948 0.186236 0.418021

For kpairSelect: Estart= -0.0058255 Estop= 0.0131754 bStart= 14 bStop= 18

Scanning k-pairs with e-ph coupling: 2% 4% 5% 7% 9% 11% 12% 14% 16% 18% 19% 21% 23% 25% 26% 28% 30% 32% 33% 35% 37% 39% 40% 42% 44% 46% 47% 49% 51% 53% 54% 56% 58% 60% 61% 63% 65% 67% 68% 70% 72% 74% 75% 77% 79% 81% 82% 84% 86% 88% 89% 91% 93% 95% 96% 98% 100% done.
Found 424737 k-pairs with e-ph coupling from 857476 total pairs of selected k-points (2x reduction)
saveSize done
saveKpair done

For ePh: Estart= -0.15852 eV Estop= 0.35852 eV bStart= 14 bStop= 18

Compute EPH: 
2% 4% 6% 8% 10% 12% 14% 16% 18% 20% 22% 24% 26% 28% 30% 32% 34% 36% 38% 40% 42% 44% 46% 48% 50% 52% 54% 56% 58% 60% 62% 64% 66% 68% 70% 72% 74% 76% 78% 80% 82% 84% 86% 88% 90% 92% 94% 96% 98% 
imsig_min = 0.000274815 eV imsig_max = 0.00437218 eV
done.


Merge (MPI) ldbd_data/ldbd_P1_lindblad.bin
Merge (MPI) ldbd_data/ldbd_P2_lindblad.bin
Merge (MPI) ldbd_data/ldbd_P1_conventional.bin
Merge (MPI) ldbd_data/ldbd_P2_conventional.bin

Delete gm:

defect_fraction = 0
End date and time: Wed Dec 18 22:25:09 2024  (Duration: 0-0:18:22.51)
Done!

PROFILER:    DistributedMatrix::compute1     0.000709 +/-     0.004431 s, 3840 calls,      2.723740 s total
PROFILER:    DistributedMatrix::compute2     0.239387 +/-     0.021179 s, 3792 calls,    907.755858 s total
PROFILER:  DistributedMatrix::transform1     0.022133 +/-     0.020490 s,  338 calls,      7.481110 s total
PROFILER:       FeynWann::eLoop:callback     0.000000 +/-     0.000000 s, 4032 calls,      0.000654 s total
PROFILER:      FeynWann::phLoop:callback     0.000014 +/-     0.000015 s, 4104 calls,      0.057485 s total
PROFILER:            FeynWann::setMatrix     0.001417 +/-     0.000059 s, 3792 calls,      5.372621 s total
PROFILER:  FeynWann::setState:rotations1     0.001608 +/-     0.000139 s, 4042 calls,      6.497824 s total
PROFILER:  FeynWann::setState:rotations2     0.000000 +/-     0.000000 s,    9 calls,      0.000000 s total
PROFILER:            matrix::diagonalize     0.000312 +/-     0.000340 s, 11938 calls,      3.728162 s total

MEMUSAGE:                         matrix     0.061180 GB
MEMUSAGE:                           misc     1.654023 GB
MEMUSAGE:                          Total     1.689669 GB
