
*************** JDFTx 1.7  ***************
+++++++++++++++ Linked to jdftx 1.7  +++++++++++++++

Start date and time: Thu Dec  5 02:30:08 2024
Executable /data/groups/ping/jxu153/codes/jdftx/jdftx-202306/build-FeynWann-test3/lindbladInit_for-DMD-4.5.6/init_for-DMD with command-line: -i lindbladInit.in
Running on hosts (process indices):  gpu002 (0-39)  gpu003 (40-79)  gpu004 (80-119)  gpu005 (120-159)  gpu009 (160-199)  gpu010 (200-239)  gpu011 (240-279)  gpu012 (280-319)
Divided in process groups (process indices):  0 (0)  1 (1)  2 (2)  3 (3)  4 (4)  5 (5)  6 (6)  7 (7)  8 (8)  9 (9)  10 (10)  11 (11)  12 (12)  13 (13)  14 (14)  15 (15)  16 (16)  17 (17)  18 (18)  19 (19)  20 (20)  21 (21)  22 (22)  23 (23)  24 (24)  25 (25)  26 (26)  27 (27)  28 (28)  29 (29)  30 (30)  31 (31)  32 (32)  33 (33)  34 (34)  35 (35)  36 (36)  37 (37)  38 (38)  39 (39)  40 (40)  41 (41)  42 (42)  43 (43)  44 (44)  45 (45)  46 (46)  47 (47)  48 (48)  49 (49)  50 (50)  51 (51)  52 (52)  53 (53)  54 (54)  55 (55)  56 (56)  57 (57)  58 (58)  59 (59)  60 (60)  61 (61)  62 (62)  63 (63)  64 (64)  65 (65)  66 (66)  67 (67)  68 (68)  69 (69)  70 (70)  71 (71)  72 (72)  73 (73)  74 (74)  75 (75)  76 (76)  77 (77)  78 (78)  79 (79)  80 (80)  81 (81)  82 (82)  83 (83)  84 (84)  85 (85)  86 (86)  87 (87)  88 (88)  89 (89)  90 (90)  91 (91)  92 (92)  93 (93)  94 (94)  95 (95)  96 (96)  97 (97)  98 (98)  99 (99)  100 (100)  101 (101)  102 (102)  103 (103)  104 (104)  105 (105)  106 (106)  107 (107)  108 (108)  109 (109)  110 (110)  111 (111)  112 (112)  113 (113)  114 (114)  115 (115)  116 (116)  117 (117)  118 (118)  119 (119)  120 (120)  121 (121)  122 (122)  123 (123)  124 (124)  125 (125)  126 (126)  127 (127)  128 (128)  129 (129)  130 (130)  131 (131)  132 (132)  133 (133)  134 (134)  135 (135)  136 (136)  137 (137)  138 (138)  139 (139)  140 (140)  141 (141)  142 (142)  143 (143)  144 (144)  145 (145)  146 (146)  147 (147)  148 (148)  149 (149)  150 (150)  151 (151)  152 (152)  153 (153)  154 (154)  155 (155)  156 (156)  157 (157)  158 (158)  159 (159)  160 (160)  161 (161)  162 (162)  163 (163)  164 (164)  165 (165)  166 (166)  167 (167)  168 (168)  169 (169)  170 (170)  171 (171)  172 (172)  173 (173)  174 (174)  175 (175)  176 (176)  177 (177)  178 (178)  179 (179)  180 (180)  181 (181)  182 (182)  183 (183)  184 (184)  185 (185)  186 (186)  187 (187)  188 (188)  189 (189)  190 (190)  191 (191)  192 (192)  193 (193)  194 (194)  195 (195)  196 (196)  197 (197)  198 (198)  199 (199)  200 (200)  201 (201)  202 (202)  203 (203)  204 (204)  205 (205)  206 (206)  207 (207)  208 (208)  209 (209)  210 (210)  211 (211)  212 (212)  213 (213)  214 (214)  215 (215)  216 (216)  217 (217)  218 (218)  219 (219)  220 (220)  221 (221)  222 (222)  223 (223)  224 (224)  225 (225)  226 (226)  227 (227)  228 (228)  229 (229)  230 (230)  231 (231)  232 (232)  233 (233)  234 (234)  235 (235)  236 (236)  237 (237)  238 (238)  239 (239)  240 (240)  241 (241)  242 (242)  243 (243)  244 (244)  245 (245)  246 (246)  247 (247)  248 (248)  249 (249)  250 (250)  251 (251)  252 (252)  253 (253)  254 (254)  255 (255)  256 (256)  257 (257)  258 (258)  259 (259)  260 (260)  261 (261)  262 (262)  263 (263)  264 (264)  265 (265)  266 (266)  267 (267)  268 (268)  269 (269)  270 (270)  271 (271)  272 (272)  273 (273)  274 (274)  275 (275)  276 (276)  277 (277)  278 (278)  279 (279)  280 (280)  281 (281)  282 (282)  283 (283)  284 (284)  285 (285)  286 (286)  287 (287)  288 (288)  289 (289)  290 (290)  291 (291)  292 (292)  293 (293)  294 (294)  295 (295)  296 (296)  297 (297)  298 (298)  299 (299)  300 (300)  301 (301)  302 (302)  303 (303)  304 (304)  305 (305)  306 (306)  307 (307)  308 (308)  309 (309)  310 (310)  311 (311)  312 (312)  313 (313)  314 (314)  315 (315)  316 (316)  317 (317)  318 (318)  319 (319)
Resource initialization completed at t[s]:      0.16
Run totals: 320 processes, 320 threads, 0 GPUs

Inputs after conversion to atomic units:
order_fd = 0
i_idklist_fd = 0
dkabs = 1e-08
kshift = 0 0 0
NkMult = [  10  10  10  ]
NkMult_forq = [  10  10  10  ]
dmuMin = 0.0367493
dmuMax = 0.0367493
Tmax = 0.000950043
nkBT = 7
pumpOmegaMax = 0
pumpTau = 413414
probeOmegaMax = 0
band_skipped = 0
assumeMetal = 0
assumeMetal_scatt = 0
useFinek_for_ERange = 0
select_k_use_meff = 0
meff = 1
EBot_set = 0
ETop_set = -0.0367493
kparis_eph_eimp = 0
read_kpts = 0
read_kpts_2nd = 0
read_kpairs = 0
read_erange_brange = 0
ePhMode = DiagK
ePhOnlyElec = 1
ePhOnlyHole = 0
onlyInterValley = 0
onlyIntraValley = 0
modeStart = 0
modeStop = -1
modeSkipStart = 0
modeSkipStop = -1
include_deg_phonon = 1
detailBalance = 1
ePhDelta = 0.000734986
nEphDelta = 5.65685
omegabyTCut = 0.001
ePhOmegaCut = 1e-06
maxNeighbors = 0
degthr = 1e-08
defectName = 
iDefect = 1
eScattOnlyElec = 1
eScattOnlyHole = 0
scattDelta = 0.000734986
nScattDelta = 5.65685
detailBalance_defect = 1
omegaL = 9.50043e-08
DEBUG = 0
needConventional = 0
writeU = none
write_sparseP = 0
writegm = 1
keepgm = 0
mergegm = 0
layerOcc = 0
writeHEz = 0
needOmegaPhMax = 1
save_dHePhSum_disk = 1
check_T1 = 1
needL = 0
gfac_mean = 2.00232 2.00232 2.00232
gfac_sigma = 0 0 0
gfac_cap = 0 0 0
read_gfack = 0
dir_ldbd_idk_fd = ldbd_data/
idk_fd = 0 0 0
Bext = [  0  0  0  ]
orbitalZeeman = no
EzExt = 0
scissor = 0
EshiftWeight = 0
bandSumLQ = no
enforceKramerDeg = no
degeneracyThreshold = 3.67493e-06
tdep = no
lcut_flexure = 1.88973e+10
order_flexure = 2
needR = 0
needRGD = 0
needRbar = 0
use_dtba_Rw = 0
rbar_off_fromp = 0
trunc_D_outer = 0
smear_nondeg_pert = 0
smear_rbar_off_fromp = 0
apply_asr_eph = 1
Emag_asr_eph = 0.001
velocity_with_scissor = 0
scissor_above_band = 0
band_scissor = 0
needJS = 0
js_from_sv = 0

Reading 'Wannier/totalE.out' ... done.
NOTE: mu unavailable; assuming semiconductor/insulator and setting to VBM.
Reading 'Wannier/totalE.eigenvals' ... done.
mu = 0.180238
nElectrons = 8
nBandsDFT = 34
nSpins = 1
nSpinor = 2
spinSuffix = ''
kfold = [  24  24  24  ]
isTruncated = [  0  0  0  ]
R:
[  0  5.34145  5.34145  ]
[  5.34145  0  5.34145  ]
[  5.34145  5.34145  0  ]
G:
[  -0.588154  0.588154  0.588154  ]
[  0.588154  -0.588154  0.588154  ]
[  0.588154  0.588154  -0.588154  ]
invGT:
[  0  0.850118  0.850118  ]
[  0.850118  0  0.850118  ]
[  0.850118  0.850118  0  ]
Atoms with fractional coordinates:
	Ga   0.000000000000000   0.000000000000000   0.000000000000000
	As   0.250000000000000   0.250000000000000   0.250000000000000

Reading 'Wannier/wannier.mlwfCellMap' ... done.
Reading 'Wannier/wannier.mlwfBandContrib' ... done.
nBands = 16


Reading 'Wannier/wannier.out' ... done.
EminInner = -0.11
EmaxInner = 0.325
Reading 'Wannier/wannier.mlwfCellWeights' ... done.

Reading 'Wannier/phonon.out' ... done.
nModes = 6
phononSup = [  4  4  4  ]

Reading 'Wannier/totalE.phononBasis' ... done.
Reading 'Wannier/totalE.phononBasis' ... done.
Reading 'Wannier/totalE.phononCellMap' ... done.
Reading 'Wannier/totalE.phononOmegaSq' ... done.
Reading 'Wannier/wannier.mlwfCellMapPh' ... done.
Reading 'Wannier/wannier.mlwfCellMapPhSum' ... done.
Reading 'Wannier/wannier.mlwfCellWeightsPh' ... done.
Reading 'Wannier/wannier.mlwfHePh' ... done.
Reading 'Wannier/wannier.mlwfHePhSum' ... done.
Reading 'Wannier/wannier.mlwfD' ... done.

Reading 'Wannier/wannier.out' ... done.
polar = yes

Reading 'Wannier/totalE.Zeff' ... done.
Reading 'Wannier/totalE.epsInf' ... done.
Reading 'Wannier/totalE.phononCellWeights' ... done.
Reading 'Wannier/wannier.mlwfH' ... done.
Reading 'Wannier/wannier.mlwfP' ... done.
Reading 'Wannier/wannier.mlwfS' ... done.

modeStop = 6
Scanning q points: 2% 4% 6% 8% 10% 12% 15% 17% 19% 21% 23% 25% 27% 29% 31% 33% 35% 37% 39% 41% 44% 46% 48% 50% 52% 54% 56% 58% 60% 62% 64% 66% 68% 71% 73% 75% 77% 79% 81% 83% 85% 87% 89% 91% 93% 95% 97% 100% done.
Maximum phonon energy: 38.1091 meV
Minimum non-zero phonon energy: 0.105419 meV (3.87408e-06 har)

carrier_density = 0 a.u.
Carrier density:  0.0000000e+00 cm^-3

Effective interpolated k-mesh dimensions: [  240  240  240  ]
Effectively sampled nKpts: 13824000

find number of DFT bands skipped in Wannier
band_skipped = 0

Determin VBM and CBM using DFT k meshes
Reading 'Wannier/totalE.eigenvals' ... done.
VBM: 0.000000 eV, CBM: 1.005781 eV, Middle: 0.502891 eV

The system is not metalic
Emargin = 0.181 eV
Active energy range for probe: 0.503 to 1.187 eV
Active energy range for kpointSelect: 0.503 to 1.187 eV
Active energy range for density matrix: 0.503 to 1.187 eV

bBot_probe= 8 bTop_probe= 10
bBot_dm= 8 bTop_dm= 10
bBot_eph= 8 bTop_eph= 10 bCBM= 8
Scanning k-points with active states: 33% 67% 100% done.
Found 1839 k-points with active states from  1.38240000000000e+07 total k-points (7517x reduction)

saveR done
saveSize done
saveEk done

dmu =  3.67493237908520e-02 ( 1.00000000000000e+00 eV)

Compute StateE in parallel: done
bcastState_JX done

size of E: 2
size of U: 16 2
size of S: 2 2
size of L: 0 0
size of v: 2 2
size of rbar: 0 0


At dmuMax, majority density: Carrier density:  2.2719532e+17 cm^-3
At dmuMax, minority density: Carrier density:  0.0000000e+00 cm^-3
At dmuMin, majority density: Carrier density:  2.2719532e+17 cm^-3
At dmuMin, minority density: Carrier density:  0.0000000e+00 cm^-3
saveElec done

Spin mixing |b|^2: 0.225336 0.22431 0.225846

For kpairSelect: Estart= 0.0184809 Estop= 0.0436121 bStart= 8 bStop= 10

Scanning k-pairs with e-ph coupling: 2% 4% 6% 8% 10% 12% 15% 17% 19% 21% 23% 25% 27% 29% 31% 33% 35% 37% 39% 41% 44% 46% 48% 50% 52% 54% 56% 58% 60% 62% 64% 66% 68% 71% 73% 75% 77% 79% 81% 83% 85% 87% 89% 91% 93% 95% 97% 100% done.
Found 1667564 k-pairs with e-ph coupling from 3381921 total pairs of selected k-points (2x reduction)
saveSize done
saveKpair done

For ePh: Estart= 0.502891 eV Estop= 1.18675 eV bStart= 8 bStop= 10

Compute EPH: 
2% 4% 6% 8% 10% 12% 14% 16% 18% 20% 22% 24% 26% 28% 30% 32% 34% 36% 38% 40% 42% 44% 46% 48% 50% 52% 54% 56% 58% 60% 62% 64% 66% 68% 70% 72% 74% 76% 78% 80% 82% 84% 86% 88% 90% 92% 94% 96% 98% 100% 
imsig_min = 0.00138206 eV imsig_max = 0.00211937 eV
Active energy range for printing ImSigma(E): 0.893 to 1.187 eV
done.

dSz = 0 Szdot = 2.29951e-20 T1z = -0 ps
dSz = -3.79133e-08 Szdot = 7.59858e-16 T1z = 1206.91 ps
dSz = -3.79133e-09 Szdot = 7.60065e-17 T1z = 1206.58 ps

Merge (MPI) ldbd_data/ldbd_P1_lindblad.bin
Merge (MPI) ldbd_data/ldbd_P2_lindblad.bin

drhosdeg = 1 obsdeg = 1 imsigma_eph = 0 fac_imsig = 0 impurity_broadening = 0 eV
dS[2] = -0.00381116 Sdot[2] = 2.15899e-07 T1 = 0.425504 0.427896 0.426993 ps

drhosdeg = 1 obsdeg = 0 imsigma_eph = 0 fac_imsig = 0 impurity_broadening = 0 eV
dS[2] = -0.00381116 Sdot[2] = 1.23562e-10 T1 = 901.263 478.559 746.085 ps

**************************************************
dRho formula with constant smearings:
**************************************************

drhosdeg = 0 obsdeg = 0 imsigma_eph = 1 fac_imsig = 0 impurity_broadening = 0.001 eV
dS[2] = -0.00891158 Sdot[2] = 1.93084e-08 T1 = 11.1764 11.1719 11.1641 ps

drhosdeg = 0 obsdeg = 0 imsigma_eph = 1 fac_imsig = 0 impurity_broadening = 0.005 eV
dS[2] = -0.00891158 Sdot[2] = 9.78549e-10 T1 = 220.701 219.691 220.286 ps

**************************************************
dRho formula with ImSigma_eph + a constant:
**************************************************

drhosdeg = 0 obsdeg = 0 imsigma_eph = 1 fac_imsig = 1 impurity_broadening = 0 eV
dS[2] = -0.00891158 Sdot[2] = 1.52331e-09 T1 = 141.737 141.3 141.508 ps

drhosdeg = 0 obsdeg = 0 imsigma_eph = 1 fac_imsig = 0.5 impurity_broadening = 0 eV
dS[2] = -0.00891158 Sdot[2] = 5.78067e-09 T1 = 37.3364 37.2988 37.2899 ps

drhosdeg = 0 obsdeg = 0 imsigma_eph = 1 fac_imsig = 1 impurity_broadening = 0.001 eV
dS[2] = -0.00891158 Sdot[2] = 1.01187e-09 T1 = 213.427 212.479 213.031 ps

drhosdeg = 0 obsdeg = 0 imsigma_eph = 1 fac_imsig = 1 impurity_broadening = 0.005 eV
dS[2] = -0.00891158 Sdot[2] = 4.00553e-10 T1 = 539.75 533.99 538.158 ps

Delete gm:

defect_fraction = 0
End date and time: Thu Dec  5 02:35:10 2024  (Duration: 0-0:05:02.63)
Done!

PROFILER:    DistributedMatrix::compute1     0.000090 +/-     0.004254 s, 73908 calls,      6.673432 s total
PROFILER:    DistributedMatrix::compute2     0.019148 +/-     0.000610 s, 5211 calls,     99.782673 s total
PROFILER:  DistributedMatrix::transform1     0.040869 +/-     0.041692 s, 2646 calls,    108.139488 s total
PROFILER:       FeynWann::eLoop:callback     0.000000 +/-     0.000000 s, 82944 calls,      0.012495 s total
PROFILER:      FeynWann::phLoop:callback     0.000033 +/-     0.000034 s, 86400 calls,      2.872489 s total
PROFILER:            FeynWann::setMatrix     0.000190 +/-     0.000170 s, 5211 calls,      0.992567 s total
PROFILER:  FeynWann::setState:rotations1     0.000000 +/-     0.000002 s, 82951 calls,      0.007368 s total
PROFILER:  FeynWann::setState:rotations2     0.000000 +/-     0.000000 s,    6 calls,      0.000002 s total
PROFILER:            matrix::diagonalize     0.000041 +/-     0.000283 s, 243226 calls,     10.014725 s total

MEMUSAGE:                         matrix     0.128464 GB
MEMUSAGE:                           misc     0.729518 GB
MEMUSAGE:                          Total     0.796499 GB
